<?xml version="1.0" encoding="UTF-8"?>

<!-- generated on 2023-01-11 20:27:40 by Eclipse SUMO GUI Version 1.14.1
<configuration xmlns:xsi="http://www.w3.org/2001/XMLSchema-instance" xsi:noNamespaceSchemaLocation="http://sumo.dlr.de/xsd/sumoConfiguration.xsd">

    <input>
        <net-file value="C:\Users\Vitor\OneDrive\URB\GITHUB\TRAFFIC%20FLOW%20MICROSSIMULATION%20MARINGA\traffic-flow-microssimulation-maringa\model.net.xml"/>
        <route-files value="C:\Users\Vitor\OneDrive\URB\GITHUB\TRAFFIC%20FLOW%20MICROSSIMULATION%20MARINGA\traffic-flow-microssimulation-maringa\fluxos.xml"/>
    </input>

    <output>
        <write-license value="true"/>
        <tripinfo-output value="C:\Users\Vitor\OneDrive\URB\GITHUB\TRAFFIC%20FLOW%20MICROSSIMULATION%20MARINGA\traffic-flow-microssimulation-maringa\tripinfo_performance_report.xml"/>
    </output>

    <time>
        <begin value="0"/>
        <end value="3600"/>
    </time>

    <processing>
        <time-to-teleport value="-1"/>
    </processing>

    <report>
        <duration-log.disable value="true"/>
        <no-step-log value="true"/>
    </report>

</configuration>
-->

<tripinfos xmlns:xsi="http://www.w3.org/2001/XMLSchema-instance" xsi:noNamespaceSchemaLocation="http://sumo.dlr.de/xsd/tripinfo_file.xsd">
    <tripinfo id="m9.0" depart="0.00" departLane="E2_0" departPos="5.10" departSpeed="0.00" departDelay="0.00" arrival="17.00" arrivalLane="E4_0" arrivalPos="67.86" arrivalSpeed="12.89" duration="17.00" routeLength="171.28" waitingTime="0.00" waitingCount="0" stopTime="0.00" timeLoss="3.86" rerouteNo="1" devices="tripinfo_m9.0 routing_m9.0" vType="Carro" speedFactor="0.94" vaporized=""/>
    <tripinfo id="m1.0" depart="0.00" departLane="E7_0" departPos="5.10" departSpeed="0.00" departDelay="0.00" arrival="19.00" arrivalLane="E1_0" arrivalPos="73.25" arrivalSpeed="13.72" duration="19.00" routeLength="206.19" waitingTime="0.00" waitingCount="0" stopTime="0.00" timeLoss="4.59" rerouteNo="1" devices="tripinfo_m1.0 routing_m1.0" vType="Carro" speedFactor="1.06" vaporized=""/>
    <tripinfo id="m5.0" depart="0.00" departLane="E0_0" departPos="5.10" departSpeed="0.00" departDelay="0.00" arrival="22.00" arrivalLane="E3_0" arrivalPos="71.04" arrivalSpeed="13.40" duration="22.00" routeLength="237.77" waitingTime="0.00" waitingCount="0" stopTime="0.00" timeLoss="5.31" rerouteNo="1" devices="tripinfo_m5.0 routing_m5.0" vType="Carro" speedFactor="1.03" vaporized=""/>
    <tripinfo id="m13.0" depart="0.00" departLane="E5_0" departPos="5.10" departSpeed="0.00" departDelay="0.00" arrival="23.00" arrivalLane="E6_0" arrivalPos="104.96" arrivalSpeed="13.69" duration="23.00" routeLength="255.76" waitingTime="0.00" waitingCount="0" stopTime="0.00" timeLoss="4.62" rerouteNo="1" devices="tripinfo_m13.0 routing_m13.0" vType="Carro" speedFactor="1.05" vaporized=""/>
    <tripinfo id="m14.0" depart="3.00" departLane="E5_0" departPos="5.10" departSpeed="0.00" departDelay="3.00" arrival="27.00" arrivalLane="E1_0" arrivalPos="73.25" arrivalSpeed="14.96" duration="24.00" routeLength="283.76" waitingTime="0.00" waitingCount="0" stopTime="0.00" timeLoss="5.65" rerouteNo="1" devices="tripinfo_m14.0 routing_m14.0" vType="Carro" speedFactor="1.12" vaporized=""/>
    <tripinfo id="m2.0" depart="3.00" departLane="E7_0" departPos="5.10" departSpeed="0.00" departDelay="3.00" arrival="33.00" arrivalLane="E3_0" arrivalPos="71.04" arrivalSpeed="12.63" duration="30.00" routeLength="330.68" waitingTime="0.00" waitingCount="0" stopTime="0.00" timeLoss="4.57" rerouteNo="1" devices="tripinfo_m2.0 routing_m2.0" vType="Carro" speedFactor="0.94" vaporized=""/>
    <tripinfo id="m6.0" depart="3.00" departLane="E0_0" departPos="5.10" departSpeed="0.00" departDelay="3.00" arrival="33.00" arrivalLane="E4_0" arrivalPos="67.86" arrivalSpeed="11.41" duration="30.00" routeLength="289.45" waitingTime="0.00" waitingCount="0" stopTime="0.00" timeLoss="4.39" rerouteNo="1" devices="tripinfo_m6.0 routing_m6.0" vType="Carro" speedFactor="0.83" vaporized=""/>
    <tripinfo id="m10.0" depart="3.00" departLane="E2_0" departPos="5.10" departSpeed="0.00" departDelay="3.00" arrival="35.00" arrivalLane="E6_0" arrivalPos="104.96" arrivalSpeed="11.86" duration="32.00" routeLength="327.02" waitingTime="0.00" waitingCount="0" stopTime="0.00" timeLoss="4.25" rerouteNo="1" devices="tripinfo_m10.0 routing_m10.0" vType="Carro" speedFactor="0.86" vaporized=""/>
    <tripinfo id="m11.0" depart="4.00" departLane="E2_0" departPos="5.10" departSpeed="0.00" departDelay="4.00" arrival="35.00" arrivalLane="E1_0" arrivalPos="73.25" arrivalSpeed="14.42" duration="31.00" routeLength="355.02" waitingTime="0.00" waitingCount="0" stopTime="0.00" timeLoss="7.42" rerouteNo="1" devices="tripinfo_m11.0 routing_m11.0" vType="Carro" speedFactor="1.09" vaporized=""/>
    <tripinfo id="m3.0" depart="4.00" departLane="E7_0" departPos="5.10" departSpeed="0.00" departDelay="4.00" arrival="38.00" arrivalLane="E4_0" arrivalPos="67.86" arrivalSpeed="13.75" duration="34.00" routeLength="382.36" waitingTime="0.00" waitingCount="0" stopTime="0.00" timeLoss="6.06" rerouteNo="1" devices="tripinfo_m3.0 routing_m3.0" vType="Carro" speedFactor="1.01" vaporized=""/>
    <tripinfo id="m15.0" depart="4.00" departLane="E5_0" departPos="5.10" departSpeed="0.00" departDelay="4.00" arrival="40.00" arrivalLane="E3_0" arrivalPos="71.04" arrivalSpeed="13.69" duration="36.00" routeLength="408.25" waitingTime="0.00" waitingCount="0" stopTime="0.00" timeLoss="5.87" rerouteNo="1" devices="tripinfo_m15.0 routing_m15.0" vType="Carro" speedFactor="0.99" vaporized=""/>
    <tripinfo id="m7.0" depart="4.00" departLane="E0_0" departPos="5.10" departSpeed="0.00" departDelay="4.00" arrival="44.00" arrivalLane="E6_0" arrivalPos="104.96" arrivalSpeed="13.96" duration="40.00" routeLength="445.19" waitingTime="0.00" waitingCount="0" stopTime="0.00" timeLoss="8.57" rerouteNo="1" devices="tripinfo_m7.0 routing_m7.0" vType="Carro" speedFactor="1.05" vaporized=""/>
    <tripinfo id="m12.0" depart="7.00" departLane="E2_0" departPos="5.10" departSpeed="0.00" departDelay="7.00" arrival="48.00" arrivalLane="E3_0" arrivalPos="71.04" arrivalSpeed="13.61" duration="41.00" routeLength="479.51" waitingTime="0.00" waitingCount="0" stopTime="0.00" timeLoss="6.86" rerouteNo="1" devices="tripinfo_m12.0 routing_m12.0" vType="Carro" speedFactor="1.03" vaporized=""/>
    <tripinfo id="m4.0" depart="7.00" departLane="E7_0" departPos="5.10" departSpeed="0.00" departDelay="7.00" arrival="50.00" arrivalLane="E6_0" arrivalPos="104.96" arrivalSpeed="13.80" duration="43.00" routeLength="538.10" waitingTime="0.00" waitingCount="0" stopTime="0.00" timeLoss="6.77" rerouteNo="1" devices="tripinfo_m4.0 routing_m4.0" vType="Carro" speedFactor="1.08" vaporized=""/>
    <tripinfo id="m16.0" depart="7.00" departLane="E5_0" departPos="5.10" departSpeed="0.00" departDelay="7.00" arrival="51.00" arrivalLane="E4_0" arrivalPos="67.86" arrivalSpeed="12.46" duration="44.00" routeLength="459.93" waitingTime="0.00" waitingCount="0" stopTime="0.00" timeLoss="7.76" rerouteNo="1" devices="tripinfo_m16.0 routing_m16.0" vType="Carro" speedFactor="0.93" vaporized=""/>
    <tripinfo id="m8.0" depart="7.00" departLane="E0_0" departPos="5.10" departSpeed="0.00" departDelay="7.00" arrival="52.00" arrivalLane="E1_0" arrivalPos="73.25" arrivalSpeed="11.47" duration="45.00" routeLength="473.19" waitingTime="0.00" waitingCount="0" stopTime="0.00" timeLoss="5.68" rerouteNo="1" devices="tripinfo_m8.0 routing_m8.0" vType="Carro" speedFactor="0.89" vaporized=""/>
    <tripinfo id="m12.1" depart="10.00" departLane="E2_0" departPos="5.10" departSpeed="0.00" departDelay="9.79" arrival="53.00" arrivalLane="E3_0" arrivalPos="71.04" arrivalSpeed="11.90" duration="43.00" routeLength="479.51" waitingTime="0.00" waitingCount="0" stopTime="0.00" timeLoss="5.57" rerouteNo="1" devices="tripinfo_m12.1 routing_m12.1" vType="Carro" speedFactor="0.94" vaporized=""/>
    <tripinfo id="m12.2" depart="13.00" departLane="E2_0" departPos="5.10" departSpeed="0.00" departDelay="12.58" arrival="54.00" arrivalLane="E3_0" arrivalPos="71.04" arrivalSpeed="14.47" duration="41.00" routeLength="479.51" waitingTime="0.00" waitingCount="0" stopTime="0.00" timeLoss="11.18" rerouteNo="1" devices="tripinfo_m12.2 routing_m12.2" vType="Carro" speedFactor="1.16" vaporized=""/>
    <tripinfo id="m8.1" depart="10.00" departLane="E0_0" departPos="5.10" departSpeed="0.00" departDelay="9.00" arrival="57.00" arrivalLane="E1_0" arrivalPos="73.25" arrivalSpeed="13.01" duration="47.00" routeLength="473.19" waitingTime="1.00" waitingCount="1" stopTime="0.00" timeLoss="10.45" rerouteNo="1" devices="tripinfo_m8.1 routing_m8.1" vType="Carro" speedFactor="0.94" vaporized=""/>
    <tripinfo id="m12.3" depart="16.00" departLane="E2_0" departPos="5.10" departSpeed="0.00" departDelay="15.37" arrival="57.00" arrivalLane="E3_0" arrivalPos="71.04" arrivalSpeed="13.07" duration="41.00" routeLength="479.51" waitingTime="0.00" waitingCount="0" stopTime="0.00" timeLoss="6.75" rerouteNo="1" devices="tripinfo_m12.3 routing_m12.3" vType="Carro" speedFactor="1.02" vaporized=""/>
    <tripinfo id="m4.1" depart="10.00" departLane="E7_0" departPos="5.10" departSpeed="0.00" departDelay="9.00" arrival="60.00" arrivalLane="E6_0" arrivalPos="104.96" arrivalSpeed="12.00" duration="50.00" routeLength="538.10" waitingTime="0.00" waitingCount="0" stopTime="0.00" timeLoss="5.90" rerouteNo="1" devices="tripinfo_m4.1 routing_m4.1" vType="Carro" speedFactor="0.88" vaporized=""/>
    <tripinfo id="m12.4" depart="19.00" departLane="E2_0" departPos="5.10" departSpeed="0.00" departDelay="18.16" arrival="62.00" arrivalLane="E3_0" arrivalPos="71.04" arrivalSpeed="13.16" duration="43.00" routeLength="479.51" waitingTime="0.00" waitingCount="0" stopTime="0.00" timeLoss="8.27" rerouteNo="1" devices="tripinfo_m12.4 routing_m12.4" vType="Carro" speedFactor="1.01" vaporized=""/>
    <tripinfo id="m12.5" depart="22.00" departLane="E2_0" departPos="5.10" departSpeed="0.00" departDelay="20.95" arrival="66.00" arrivalLane="E3_0" arrivalPos="71.04" arrivalSpeed="12.37" duration="44.00" routeLength="479.51" waitingTime="0.00" waitingCount="0" stopTime="0.00" timeLoss="5.94" rerouteNo="1" devices="tripinfo_m12.5 routing_m12.5" vType="Carro" speedFactor="0.92" vaporized=""/>
    <tripinfo id="m4.3" depart="19.00" departLane="E7_0" departPos="5.10" departSpeed="0.00" departDelay="16.00" arrival="66.00" arrivalLane="E6_0" arrivalPos="104.96" arrivalSpeed="15.30" duration="47.00" routeLength="538.10" waitingTime="0.00" waitingCount="0" stopTime="0.00" timeLoss="13.36" rerouteNo="1" devices="tripinfo_m4.3 routing_m4.3" vType="Carro" speedFactor="1.17" vaporized=""/>
    <tripinfo id="m8.2" depart="13.00" departLane="E0_0" departPos="5.10" departSpeed="0.00" departDelay="11.00" arrival="68.00" arrivalLane="E1_0" arrivalPos="73.25" arrivalSpeed="11.63" duration="55.00" routeLength="473.19" waitingTime="2.00" waitingCount="1" stopTime="0.00" timeLoss="15.09" rerouteNo="1" devices="tripinfo_m8.2 routing_m8.2" vType="Carro" speedFactor="0.87" vaporized=""/>
    <tripinfo id="m12.7" depart="28.00" departLane="E2_0" departPos="5.10" departSpeed="0.00" departDelay="26.53" arrival="68.00" arrivalLane="E3_0" arrivalPos="71.04" arrivalSpeed="15.40" duration="40.00" routeLength="479.51" waitingTime="0.00" waitingCount="0" stopTime="0.00" timeLoss="8.68" rerouteNo="1" devices="tripinfo_m12.7 routing_m12.7" vType="Carro" speedFactor="1.13" vaporized=""/>
    <tripinfo id="m8.4" depart="18.00" departLane="E0_0" departPos="5.10" departSpeed="0.00" departDelay="14.00" arrival="69.00" arrivalLane="E1_0" arrivalPos="73.25" arrivalSpeed="13.69" duration="51.00" routeLength="473.19" waitingTime="0.00" waitingCount="0" stopTime="0.00" timeLoss="18.01" rerouteNo="1" devices="tripinfo_m8.4 routing_m8.4" vType="Carro" speedFactor="1.04" vaporized=""/>
    <tripinfo id="m12.6" depart="25.00" departLane="E2_0" departPos="5.10" departSpeed="0.00" departDelay="23.74" arrival="70.00" arrivalLane="E3_0" arrivalPos="71.04" arrivalSpeed="13.05" duration="45.00" routeLength="479.51" waitingTime="0.00" waitingCount="0" stopTime="0.00" timeLoss="7.67" rerouteNo="1" devices="tripinfo_m12.6 routing_m12.6" vType="Carro" speedFactor="0.95" vaporized=""/>
    <tripinfo id="m4.2" depart="16.00" departLane="E7_0" departPos="5.10" departSpeed="0.00" departDelay="14.00" arrival="71.00" arrivalLane="E6_0" arrivalPos="104.96" arrivalSpeed="10.43" duration="55.00" routeLength="538.10" waitingTime="0.00" waitingCount="0" stopTime="0.00" timeLoss="7.76" rerouteNo="1" devices="tripinfo_m4.2 routing_m4.2" vType="Carro" speedFactor="0.83" vaporized=""/>
    <tripinfo id="m4.4" depart="25.00" departLane="E7_0" departPos="5.10" departSpeed="0.00" departDelay="21.00" arrival="73.00" arrivalLane="E6_0" arrivalPos="104.96" arrivalSpeed="14.73" duration="48.00" routeLength="538.10" waitingTime="0.00" waitingCount="0" stopTime="0.00" timeLoss="11.77" rerouteNo="1" devices="tripinfo_m4.4 routing_m4.4" vType="Carro" speedFactor="1.09" vaporized=""/>
    <tripinfo id="m12.8" depart="31.00" departLane="E2_0" departPos="5.10" departSpeed="0.00" departDelay="29.32" arrival="74.00" arrivalLane="E3_0" arrivalPos="71.04" arrivalSpeed="12.55" duration="43.00" routeLength="479.51" waitingTime="0.00" waitingCount="0" stopTime="0.00" timeLoss="5.33" rerouteNo="1" devices="tripinfo_m12.8 routing_m12.8" vType="Carro" speedFactor="0.93" vaporized=""/>
    <tripinfo id="m4.5" depart="28.00" departLane="E7_0" departPos="5.10" departSpeed="0.00" departDelay="23.00" arrival="74.00" arrivalLane="E6_0" arrivalPos="104.96" arrivalSpeed="15.21" duration="46.00" routeLength="538.10" waitingTime="0.00" waitingCount="0" stopTime="0.00" timeLoss="12.67" rerouteNo="1" devices="tripinfo_m4.5 routing_m4.5" vType="Carro" speedFactor="1.17" vaporized=""/>
    <tripinfo id="m12.9" depart="34.00" departLane="E2_0" departPos="5.10" departSpeed="0.00" departDelay="32.11" arrival="78.00" arrivalLane="E3_0" arrivalPos="71.04" arrivalSpeed="15.21" duration="44.00" routeLength="479.51" waitingTime="0.00" waitingCount="0" stopTime="0.00" timeLoss="14.12" rerouteNo="1" devices="tripinfo_m12.9 routing_m12.9" vType="Carro" speedFactor="1.18" vaporized=""/>
    <tripinfo id="m8.5" depart="22.00" departLane="E0_0" departPos="5.10" departSpeed="0.00" departDelay="17.00" arrival="78.00" arrivalLane="E1_0" arrivalPos="73.25" arrivalSpeed="13.70" duration="56.00" routeLength="473.19" waitingTime="8.00" waitingCount="1" stopTime="0.00" timeLoss="22.44" rerouteNo="1" devices="tripinfo_m8.5 routing_m8.5" vType="Carro" speedFactor="1.02" vaporized=""/>
    <tripinfo id="m4.6" depart="34.00" departLane="E7_0" departPos="5.10" departSpeed="0.00" departDelay="28.00" arrival="80.00" arrivalLane="E6_0" arrivalPos="104.96" arrivalSpeed="14.76" duration="46.00" routeLength="538.10" waitingTime="0.00" waitingCount="0" stopTime="0.00" timeLoss="9.34" rerouteNo="1" devices="tripinfo_m4.6 routing_m4.6" vType="Carro" speedFactor="1.08" vaporized=""/>
    <tripinfo id="m9.1" depart="67.00" departLane="E2_0" departPos="5.10" departSpeed="0.00" departDelay="62.00" arrival="84.00" arrivalLane="E4_0" arrivalPos="67.86" arrivalSpeed="14.84" duration="17.00" routeLength="171.28" waitingTime="0.00" waitingCount="0" stopTime="0.00" timeLoss="5.08" rerouteNo="1" devices="tripinfo_m9.1 routing_m9.1" vType="Carro" speedFactor="1.10" vaporized=""/>
    <tripinfo id="m12.11" depart="40.00" departLane="E2_0" departPos="5.10" departSpeed="0.00" departDelay="37.69" arrival="86.00" arrivalLane="E3_0" arrivalPos="71.04" arrivalSpeed="12.86" duration="46.00" routeLength="479.51" waitingTime="0.00" waitingCount="0" stopTime="0.00" timeLoss="9.64" rerouteNo="1" devices="tripinfo_m12.11 routing_m12.11" vType="Carro" speedFactor="0.97" vaporized=""/>
    <tripinfo id="m4.7" depart="37.00" departLane="E7_0" departPos="5.10" departSpeed="0.00" departDelay="30.00" arrival="86.00" arrivalLane="E6_0" arrivalPos="104.96" arrivalSpeed="13.16" duration="49.00" routeLength="538.10" waitingTime="0.00" waitingCount="0" stopTime="0.00" timeLoss="10.67" rerouteNo="1" devices="tripinfo_m4.7 routing_m4.7" vType="Carro" speedFactor="1.02" vaporized=""/>
    <tripinfo id="m12.10" depart="37.00" departLane="E2_0" departPos="5.10" departSpeed="0.00" departDelay="34.90" arrival="87.00" arrivalLane="E3_0" arrivalPos="71.04" arrivalSpeed="13.61" duration="50.00" routeLength="479.51" waitingTime="0.00" waitingCount="0" stopTime="0.00" timeLoss="15.85" rerouteNo="1" devices="tripinfo_m12.10 routing_m12.10" vType="Carro" speedFactor="1.02" vaporized=""/>
    <tripinfo id="m12.12" depart="43.00" departLane="E2_0" departPos="5.10" departSpeed="0.00" departDelay="40.48" arrival="89.00" arrivalLane="E3_0" arrivalPos="71.04" arrivalSpeed="14.64" duration="46.00" routeLength="479.51" waitingTime="0.00" waitingCount="0" stopTime="0.00" timeLoss="16.16" rerouteNo="1" devices="tripinfo_m12.12 routing_m12.12" vType="Carro" speedFactor="1.18" vaporized=""/>
    <tripinfo id="m4.8" depart="43.00" departLane="E7_0" departPos="5.10" departSpeed="0.00" departDelay="35.00" arrival="90.00" arrivalLane="E6_0" arrivalPos="104.96" arrivalSpeed="13.95" duration="47.00" routeLength="538.10" waitingTime="0.00" waitingCount="0" stopTime="0.00" timeLoss="8.05" rerouteNo="1" devices="tripinfo_m4.8 routing_m4.8" vType="Carro" speedFactor="1.01" vaporized=""/>
    <tripinfo id="m12.13" depart="46.00" departLane="E2_0" departPos="5.10" departSpeed="0.00" departDelay="43.27" arrival="91.00" arrivalLane="E3_0" arrivalPos="71.04" arrivalSpeed="14.30" duration="45.00" routeLength="479.51" waitingTime="0.00" waitingCount="0" stopTime="0.00" timeLoss="12.85" rerouteNo="1" devices="tripinfo_m12.13 routing_m12.13" vType="Carro" speedFactor="1.10" vaporized=""/>
    <tripinfo id="m1.1" depart="65.00" departLane="E7_0" departPos="5.10" departSpeed="0.00" departDelay="52.00" arrival="92.00" arrivalLane="E1_0" arrivalPos="73.25" arrivalSpeed="13.50" duration="27.00" routeLength="206.19" waitingTime="3.00" waitingCount="1" stopTime="0.00" timeLoss="12.11" rerouteNo="1" devices="tripinfo_m1.1 routing_m1.1" vType="Carro" speedFactor="1.03" vaporized=""/>
    <tripinfo id="m12.15" depart="52.00" departLane="E2_0" departPos="5.10" departSpeed="0.00" departDelay="48.85" arrival="93.00" arrivalLane="E3_0" arrivalPos="71.04" arrivalSpeed="13.36" duration="41.00" routeLength="479.51" waitingTime="0.00" waitingCount="0" stopTime="0.00" timeLoss="7.32" rerouteNo="1" devices="tripinfo_m12.15 routing_m12.15" vType="Carro" speedFactor="1.04" vaporized=""/>
    <tripinfo id="m12.16" depart="55.00" departLane="E2_0" departPos="5.10" departSpeed="0.00" departDelay="51.64" arrival="95.00" arrivalLane="E3_0" arrivalPos="71.04" arrivalSpeed="14.02" duration="40.00" routeLength="479.51" waitingTime="0.00" waitingCount="0" stopTime="0.00" timeLoss="7.35" rerouteNo="1" devices="tripinfo_m12.16 routing_m12.16" vType="Carro" speedFactor="1.09" vaporized=""/>
    <tripinfo id="m4.9" depart="46.00" departLane="E7_0" departPos="5.10" departSpeed="0.00" departDelay="37.00" arrival="96.00" arrivalLane="E6_0" arrivalPos="104.96" arrivalSpeed="13.82" duration="50.00" routeLength="538.10" waitingTime="1.00" waitingCount="1" stopTime="0.00" timeLoss="12.44" rerouteNo="1" devices="tripinfo_m4.9 routing_m4.9" vType="Carro" speedFactor="1.04" vaporized=""/>
    <tripinfo id="m12.14" depart="49.00" departLane="E2_0" departPos="5.10" departSpeed="0.00" departDelay="46.06" arrival="98.00" arrivalLane="E3_0" arrivalPos="71.04" arrivalSpeed="11.50" duration="49.00" routeLength="479.51" waitingTime="0.00" waitingCount="0" stopTime="0.00" timeLoss="9.85" rerouteNo="1" devices="tripinfo_m12.14 routing_m12.14" vType="Carro" speedFactor="0.90" vaporized=""/>
    <tripinfo id="m4.10" depart="52.00" departLane="E7_0" departPos="5.10" departSpeed="0.00" departDelay="42.00" arrival="98.00" arrivalLane="E6_0" arrivalPos="104.96" arrivalSpeed="13.53" duration="46.00" routeLength="538.10" waitingTime="0.00" waitingCount="0" stopTime="0.00" timeLoss="8.64" rerouteNo="1" devices="tripinfo_m4.10 routing_m4.10" vType="Carro" speedFactor="1.06" vaporized=""/>
    <tripinfo id="m12.17" depart="58.00" departLane="E2_0" departPos="5.10" departSpeed="0.00" departDelay="54.43" arrival="102.00" arrivalLane="E3_0" arrivalPos="71.04" arrivalSpeed="13.78" duration="44.00" routeLength="479.51" waitingTime="0.00" waitingCount="0" stopTime="0.00" timeLoss="9.04" rerouteNo="1" devices="tripinfo_m12.17 routing_m12.17" vType="Carro" speedFactor="1.00" vaporized=""/>
    <tripinfo id="m12.18" depart="61.00" departLane="E2_0" departPos="5.10" departSpeed="0.00" departDelay="57.22" arrival="108.00" arrivalLane="E3_0" arrivalPos="71.04" arrivalSpeed="11.40" duration="47.00" routeLength="479.51" waitingTime="0.00" waitingCount="0" stopTime="0.00" timeLoss="8.01" rerouteNo="1" devices="tripinfo_m12.18 routing_m12.18" vType="Carro" speedFactor="0.90" vaporized=""/>
    <tripinfo id="m12.19" depart="64.00" departLane="E2_0" departPos="5.10" departSpeed="0.00" departDelay="60.01" arrival="110.00" arrivalLane="E3_0" arrivalPos="71.04" arrivalSpeed="11.58" duration="46.00" routeLength="479.51" waitingTime="0.00" waitingCount="0" stopTime="0.00" timeLoss="5.89" rerouteNo="1" devices="tripinfo_m12.19 routing_m12.19" vType="Carro" speedFactor="0.88" vaporized=""/>
    <tripinfo id="m8.7" depart="27.00" departLane="E0_0" departPos="5.10" departSpeed="0.00" departDelay="20.00" arrival="113.00" arrivalLane="E1_0" arrivalPos="73.25" arrivalSpeed="13.08" duration="86.00" routeLength="473.19" waitingTime="33.00" waitingCount="2" stopTime="0.00" timeLoss="51.81" rerouteNo="1" devices="tripinfo_m8.7 routing_m8.7" vType="Carro" speedFactor="1.02" vaporized=""/>
    <tripinfo id="m12.20" depart="70.00" departLane="E2_0" departPos="5.10" departSpeed="0.00" departDelay="65.80" arrival="114.00" arrivalLane="E3_0" arrivalPos="71.04" arrivalSpeed="12.74" duration="44.00" routeLength="479.51" waitingTime="0.00" waitingCount="0" stopTime="0.00" timeLoss="9.02" rerouteNo="1" devices="tripinfo_m12.20 routing_m12.20" vType="Carro" speedFactor="1.00" vaporized=""/>
    <tripinfo id="m8.8" depart="30.00" departLane="E0_0" departPos="5.10" departSpeed="0.00" departDelay="22.00" arrival="115.00" arrivalLane="E1_0" arrivalPos="73.25" arrivalSpeed="14.37" duration="85.00" routeLength="473.19" waitingTime="31.00" waitingCount="2" stopTime="0.00" timeLoss="52.78" rerouteNo="1" devices="tripinfo_m8.8 routing_m8.8" vType="Carro" speedFactor="1.09" vaporized=""/>
    <tripinfo id="m12.21" depart="73.00" departLane="E2_0" departPos="5.10" departSpeed="0.00" departDelay="68.59" arrival="116.00" arrivalLane="E3_0" arrivalPos="71.04" arrivalSpeed="13.71" duration="43.00" routeLength="479.51" waitingTime="0.00" waitingCount="0" stopTime="0.00" timeLoss="7.69" rerouteNo="1" devices="tripinfo_m12.21 routing_m12.21" vType="Carro" speedFactor="1.00" vaporized=""/>
    <tripinfo id="m4.11" depart="56.00" departLane="E7_0" departPos="5.10" departSpeed="0.00" departDelay="45.00" arrival="116.00" arrivalLane="E6_0" arrivalPos="104.96" arrivalSpeed="13.32" duration="60.00" routeLength="538.10" waitingTime="9.00" waitingCount="1" stopTime="0.00" timeLoss="21.76" rerouteNo="1" devices="tripinfo_m4.11 routing_m4.11" vType="Carro" speedFactor="1.03" vaporized=""/>
    <tripinfo id="m8.9" depart="33.00" departLane="E0_0" departPos="5.10" departSpeed="0.00" departDelay="24.00" arrival="117.00" arrivalLane="E1_0" arrivalPos="73.25" arrivalSpeed="12.88" duration="84.00" routeLength="473.19" waitingTime="28.00" waitingCount="2" stopTime="0.00" timeLoss="49.46" rerouteNo="1" devices="tripinfo_m8.9 routing_m8.9" vType="Carro" speedFactor="1.01" vaporized=""/>
    <tripinfo id="m16.1" depart="10.00" departLane="E5_0" departPos="5.10" departSpeed="0.00" departDelay="9.00" arrival="119.00" arrivalLane="E4_0" arrivalPos="67.86" arrivalSpeed="13.15" duration="109.00" routeLength="459.93" waitingTime="57.00" waitingCount="1" stopTime="0.00" timeLoss="74.69" rerouteNo="1" devices="tripinfo_m16.1 routing_m16.1" vType="Carro" speedFactor="0.97" vaporized=""/>
    <tripinfo id="m4.12" depart="62.00" departLane="E7_0" departPos="5.10" departSpeed="0.00" departDelay="50.00" arrival="119.00" arrivalLane="E6_0" arrivalPos="104.96" arrivalSpeed="13.95" duration="57.00" routeLength="538.10" waitingTime="4.00" waitingCount="1" stopTime="0.00" timeLoss="17.79" rerouteNo="1" devices="tripinfo_m4.12 routing_m4.12" vType="Carro" speedFactor="1.00" vaporized=""/>
    <tripinfo id="m12.22" depart="76.00" departLane="E2_0" departPos="5.10" departSpeed="0.00" departDelay="71.38" arrival="120.00" arrivalLane="E3_0" arrivalPos="71.04" arrivalSpeed="12.39" duration="44.00" routeLength="479.51" waitingTime="0.00" waitingCount="0" stopTime="0.00" timeLoss="5.14" rerouteNo="1" devices="tripinfo_m12.22 routing_m12.22" vType="Carro" speedFactor="0.90" vaporized=""/>
    <tripinfo id="m12.24" depart="82.00" departLane="E2_0" departPos="5.10" departSpeed="0.00" departDelay="76.96" arrival="123.00" arrivalLane="E3_0" arrivalPos="71.04" arrivalSpeed="13.87" duration="41.00" routeLength="479.51" waitingTime="0.00" waitingCount="0" stopTime="0.00" timeLoss="6.08" rerouteNo="1" devices="tripinfo_m12.24 routing_m12.24" vType="Carro" speedFactor="1.02" vaporized=""/>
    <tripinfo id="m12.23" depart="79.00" departLane="E2_0" departPos="5.10" departSpeed="0.00" departDelay="74.17" arrival="124.00" arrivalLane="E3_0" arrivalPos="71.04" arrivalSpeed="15.10" duration="45.00" routeLength="479.51" waitingTime="0.00" waitingCount="0" stopTime="0.00" timeLoss="14.55" rerouteNo="1" devices="tripinfo_m12.23 routing_m12.23" vType="Carro" speedFactor="1.14" vaporized=""/>
    <tripinfo id="m4.13" depart="68.00" departLane="E7_0" departPos="5.10" departSpeed="0.00" departDelay="55.00" arrival="126.00" arrivalLane="E6_0" arrivalPos="104.96" arrivalSpeed="10.73" duration="58.00" routeLength="538.10" waitingTime="2.00" waitingCount="1" stopTime="0.00" timeLoss="10.81" rerouteNo="1" devices="tripinfo_m4.13 routing_m4.13" vType="Carro" speedFactor="0.82" vaporized=""/>
    <tripinfo id="m2.1" depart="55.00" departLane="E7_0" departPos="5.10" departSpeed="0.00" departDelay="44.00" arrival="128.00" arrivalLane="E3_0" arrivalPos="71.04" arrivalSpeed="13.45" duration="73.00" routeLength="330.68" waitingTime="29.00" waitingCount="1" stopTime="0.00" timeLoss="49.37" rerouteNo="1" devices="tripinfo_m2.1 routing_m2.1" vType="Carro" speedFactor="1.01" vaporized=""/>
    <tripinfo id="m4.14" depart="74.00" departLane="E7_0" departPos="5.10" departSpeed="0.00" departDelay="60.00" arrival="128.00" arrivalLane="E6_0" arrivalPos="104.96" arrivalSpeed="13.60" duration="54.00" routeLength="538.10" waitingTime="0.00" waitingCount="0" stopTime="0.00" timeLoss="15.14" rerouteNo="1" devices="tripinfo_m4.14 routing_m4.14" vType="Carro" speedFactor="1.01" vaporized=""/>
    <tripinfo id="m12.25" depart="85.00" departLane="E2_0" departPos="5.10" departSpeed="0.00" departDelay="79.75" arrival="130.00" arrivalLane="E3_0" arrivalPos="71.04" arrivalSpeed="13.42" duration="45.00" routeLength="479.51" waitingTime="0.00" waitingCount="0" stopTime="0.00" timeLoss="9.70" rerouteNo="1" devices="tripinfo_m12.25 routing_m12.25" vType="Carro" speedFactor="0.99" vaporized=""/>
    <tripinfo id="m12.26" depart="88.00" departLane="E2_0" departPos="5.10" departSpeed="0.00" departDelay="82.54" arrival="133.00" arrivalLane="E3_0" arrivalPos="71.04" arrivalSpeed="12.16" duration="45.00" routeLength="479.51" waitingTime="0.00" waitingCount="0" stopTime="0.00" timeLoss="7.97" rerouteNo="1" devices="tripinfo_m12.26 routing_m12.26" vType="Carro" speedFactor="0.94" vaporized=""/>
    <tripinfo id="m4.15" depart="77.00" departLane="E7_0" departPos="5.10" departSpeed="0.00" departDelay="62.00" arrival="136.00" arrivalLane="E6_0" arrivalPos="104.96" arrivalSpeed="10.04" duration="59.00" routeLength="538.10" waitingTime="0.00" waitingCount="0" stopTime="0.00" timeLoss="5.90" rerouteNo="1" devices="tripinfo_m4.15 routing_m4.15" vType="Carro" speedFactor="0.73" vaporized=""/>
    <tripinfo id="m12.27" depart="91.00" departLane="E2_0" departPos="5.10" departSpeed="0.00" departDelay="85.33" arrival="137.00" arrivalLane="E3_0" arrivalPos="71.04" arrivalSpeed="11.56" duration="46.00" routeLength="479.51" waitingTime="0.00" waitingCount="0" stopTime="0.00" timeLoss="6.42" rerouteNo="1" devices="tripinfo_m12.27 routing_m12.27" vType="Carro" speedFactor="0.88" vaporized=""/>
    <tripinfo id="m4.17" depart="86.00" departLane="E7_0" departPos="5.10" departSpeed="0.00" departDelay="69.00" arrival="138.00" arrivalLane="E6_0" arrivalPos="104.96" arrivalSpeed="12.30" duration="52.00" routeLength="538.10" waitingTime="0.00" waitingCount="0" stopTime="0.00" timeLoss="14.75" rerouteNo="1" devices="tripinfo_m4.17 routing_m4.17" vType="Carro" speedFactor="1.05" vaporized=""/>
    <tripinfo id="m4.16" depart="83.00" departLane="E7_0" departPos="5.10" departSpeed="0.00" departDelay="67.00" arrival="140.00" arrivalLane="E6_0" arrivalPos="104.96" arrivalSpeed="13.74" duration="57.00" routeLength="538.10" waitingTime="0.00" waitingCount="0" stopTime="0.00" timeLoss="19.84" rerouteNo="1" devices="tripinfo_m4.16 routing_m4.16" vType="Carro" speedFactor="1.06" vaporized=""/>
    <tripinfo id="m8.11" depart="42.00" departLane="E0_0" departPos="5.10" departSpeed="0.00" departDelay="31.00" arrival="143.00" arrivalLane="E1_0" arrivalPos="73.25" arrivalSpeed="14.68" duration="101.00" routeLength="473.19" waitingTime="38.00" waitingCount="2" stopTime="0.00" timeLoss="68.48" rerouteNo="1" devices="tripinfo_m8.11 routing_m8.11" vType="Carro" speedFactor="1.06" vaporized=""/>