<?xml version="1.0" encoding="UTF-8"?>

<!-- generated on 2023-01-12 20:46:56 by Eclipse SUMO GUI Version 1.14.1
<configuration xmlns:xsi="http://www.w3.org/2001/XMLSchema-instance" xsi:noNamespaceSchemaLocation="http://sumo.dlr.de/xsd/sumoConfiguration.xsd">

    <input>
        <net-file value="C:\Users\Vitor\OneDrive\URB\GITHUB\TRAFFIC%20FLOW%20MICROSSIMULATION%20MARINGA\traffic-flow-microssimulation-maringa\model.net.xml"/>
        <route-files value="C:\Users\Vitor\OneDrive\URB\GITHUB\TRAFFIC%20FLOW%20MICROSSIMULATION%20MARINGA\traffic-flow-microssimulation-maringa\fluxos.xml"/>
        <additional-files value="C:\Users\Vitor\OneDrive\URB\GITHUB\TRAFFIC%20FLOW%20MICROSSIMULATION%20MARINGA\traffic-flow-microssimulation-maringa\emissions.add.xml"/>
    </input>

    <output>
        <write-license value="true"/>
        <tripinfo-output value="C:\Users\Vitor\OneDrive\URB\GITHUB\TRAFFIC%20FLOW%20MICROSSIMULATION%20MARINGA\traffic-flow-microssimulation-maringa\tripinfo_performance_report.xml"/>
    </output>

    <time>
        <begin value="0"/>
        <end value="3600"/>
    </time>

    <processing>
        <time-to-teleport value="-1"/>
    </processing>

    <report>
        <duration-log.disable value="true"/>
        <no-step-log value="true"/>
    </report>

</configuration>
-->

<tripinfos xmlns:xsi="http://www.w3.org/2001/XMLSchema-instance" xsi:noNamespaceSchemaLocation="http://sumo.dlr.de/xsd/tripinfo_file.xsd">
</tripinfos>
